% Model:              2.mph
% Version:            COMSOL 6.0.0.405
% Date:               Feb 15 2023, 15:56
% Dimension:          3
% Nodes:              41532
% Expressions:        1
% Description:        Slice
% x,y,z,Electric field norm
318.5311564193846,42.84114839955965,0,5553.598284648371
318.54869017813553,42.79182326740606,1.734723475976807E-18,5656.530811020809
318.51893324075337,42.79182326740606,1.734723475976807E-18,5482.967716626694
318.56179416176826,42.75495976690926,0,5738.758086794999
318.6005578421963,42.64591163370303,-3.469446951953614E-18,5982.48806695198
318.4827751224624,42.64591163370302,-3.469446951953614E-18,5518.344501688276
318.50979815825343,42.75495976690926,-3.469446951953614E-18,5491.713077492172
318.3559856596826,42.75495976690926,-3.469446951953614E-18,5217.681844285734
318.3947493401106,42.64591163370303,-3.469446951953614E-18,5361.724406794237
318.2769666203767,42.64591163370303,0,5152.526272689484
318.3039896561677,42.75495976690926,0,5117.486373852684
318.3428816760498,42.79182326740606,1.734723475976807E-18,5159.918798185186
318.39492106445704,42.84114839955965,0,5224.616170102897
318.1889408380249,42.64591163370303,-3.469446951953614E-18,4992.721013541344
318.4466170041714,42.5,4.979595359042004E-18,5576.913389110601
318.2408085020858,42.50000000000001,2.489797679521002E-17,5213.412406104641
318.49682251407455,42.93773490110906,3.469446951953614E-18,5374.498922559568
318.65242550625715,42.5,0,6319.438814278873
318.035,42.5,0,4845.819033309802
318.8628915309084,42.49999999999999,0,7433.888610698393
318.6746256619939,42.69026416614966,-1.3877787807814457E-17,5979.307505037548
318.82615043517234,42.69026416614966,-6.938893903907228E-18,6585.161409429378
318.69682581773077,42.88052833229932,-6.938893903907228E-18,5486.792914966865
318.78940933943625,42.88052833229932,-6.938893903907228E-18,5827.701480698249
318.8118586060691,42.76427455948722,-6.938893903907228E-18,6261.681455344351
319.07335755555977,42.499999999999986,0,8793.688296660102
318.88521376221496,42.69031634459405,-6.938893903907228E-18,6967.006534959355
319.036707939286,42.69031634459404,-2.0816681711721685E-17,7595.009180163932
318.88032809706567,42.64866182003709,-6.938893903907228E-18,7060.413411392801
318.66976868492617,42.64863794051593,-1.3877787807814457E-17,6086.510920787254
318.6871118635952,42.797275881031865,1.3877787807814457E-17,5688.019475195948
318.89776466322286,42.79732364007417,1.3877787807814457E-17,6591.056201674521
319.09088758496955,42.64868571893147,0,8008.390474274297
318.70445504226427,42.9459138215478,6.938893903907228E-18,5452.5711998415545
319.2838235802111,42.499999999999986,0,9490.01288803047
317.1762466043369,42.42486881311508,0,3978.432960569614
317.0092396004431,42.6633493841341,1.0408340855860843E-17,3814.0781048384406
317.1966651200694,42.63299779144849,0,3949.067857299655
317.24671553617355,42.43103404578157,-1.3877787807814457E-17,4025.481992410266
317.2762257353809,42.620113786140315,-1.3877787807814457E-17,4040.5316386923078
317.20533261464897,42.721346857324775,0,3958.18549685965
317.0157020983398,42.704756336889155,-3.469446951953614E-18,3809.639695036648
317.3992896279774,42.44438254916218,0,4179.911200457464
316.9691920296249,42.406753885096606,0,3841.795289433981
317.05237958562424,42.939758809221786,-3.469446951953614E-18,3785.924854535053
316.95336904834613,42.40536955361153,3.469446951953614E-18,3832.5665160677177
316.93186148884166,42.63772491922873,6.938893903907228E-18,3768.731567408396
316.9801122597014,42.67630189992217,2.7755575615628914E-17,3792.1835995726838
316.9293759936511,42.40327043332236,3.469446951953614E-18,3817.2504800042075
316.98263538371737,42.70186337421964,-1.0408340855860843E-17,3788.3191296094114
316.934650095353,42.900771618537675,-3.469446951953614E-18,3719.9572905689556
317.0080628285012,42.95946584328996,-3.469446951953614E-18,3753.8768805405984
316.9324949279748,42.69747665275814,0,3756.1920550629616
316.742534602268,42.48635615313511,2.0816681711721685E-17,3676.9750354254547
316.7704851710679,42.7695200965029,-1.3877787807814457E-17,3631.712634372013
316.7619006768584,42.68255158972277,-6.938893903907228E-18,3643.7951781401857
316.93561386229845,42.99168287219393,1.0408340855860843E-17,3699.9104047381966
316.7911670122296,42.97904541033087,-6.938893903907228E-18,3602.2257615145545
316.73263434148714,42.38605776911465,-6.938893903907228E-18,3693.726262052167
316.7984357398677,43.052684039870684,0,3588.3738569861366
317.2818838654214,42.731310316456586,-6.938893903907228E-18,4025.8162673317875
317.292953276147,42.948852164475596,3.469446951953614E-18,3937.8059639028506
317.1987693039312,43.02270122415632,0,3842.8934071394388
317.29736398524597,43.035533726146575,-3.469446951953614E-18,3902.632786779482
317.5111739945773,42.7777466729595,4.3368086899420177E-19,4155.079133396187
317.3278665392385,43.03950375860266,-3.469446951953614E-18,3921.0556894494184
317.5390757700785,43.06699350590923,-1.3877787807814457E-17,4050.538178152934
317.5238518978912,42.76780600878459,4.7704895589362195E-18,4164.076146914684
317.52182355256707,42.762539450440066,1.5829351718288365E-17,4164.425935932278
317.52021100733054,42.75835250876373,8.456776945386935E-18,4164.986343320913
317.6443574771566,43.08069635171796,6.938893903907228E-18,4143.459013830674
317.2996185195001,43.07984101225259,3.469446951953614E-18,3886.681329527703
317.54685745337594,43.2199232152834,-6.938893903907228E-18,3996.9013242273604
317.355622767639,43.11157225431627,-3.469446951953614E-18,3911.8475023796855
317.7401600485993,43.32944582552112,3.469446951953614E-18,4133.4180159440975
317.95099162777865,42.79172627595082,-2.6020852139652106E-18,4581.761975804648
317.93672001619984,42.77648194184038,1.734723475976807E-18,4567.225152433994
317.94626899684266,42.80812601682451,-6.938893903907228E-18,4567.278008277872
317.8669832555573,43.08345255190165,-6.938893903907228E-18,4331.859453232453
317.83844003239966,43.05296388368076,1.0408340855860843E-17,4368.147946553841
317.85753799368524,43.11625203364902,5.204170427930421E-18,4304.920177406246
317.92901281488435,42.798163894802315,4.336808689942018E-18,4550.065648624723
317.8230256297687,43.096327789604636,0,4336.656994401652
317.78297488333567,43.375178827852466,-1.3877787807814457E-17,4112.994481273688
317.6111930853184,42.46292169944146,8.673617379884035E-19,4371.915462853008
317.5966485923424,42.461649221189326,-8.673617379884035E-19,4358.408386895745
317.6184909911308,42.48187056692336,8.673617379884035E-19,4371.320944379569
317.8230965426592,42.48146084972073,-6.938893903907228E-18,4569.899612918085
317.7617754382584,42.61452103135957,0,4458.03674368273
317.6248034021377,42.464112447870136,-8.673617379884035E-19,4384.6102203942555
317.73372700990797,42.781078600719354,0,4361.367144311169
317.5250373036718,42.762820617229124,9.324138683375338E-18,4163.227955982863
317.5379969666333,42.70831692292664,-4.3368086899420177E-19,4198.502032869626
316.994322381959,43.089177874974645,0,3697.9799456100764
317.02839915823927,43.00147609544981,-6.938893903907228E-18,3746.4985280208275
316.91496696005487,43.29341115275639,-6.938893903907228E-18,3575.128875103852
318.6440104767256,43.037862742110974,0,5379.011050549512
318.72364215352343,43.08240255461756,-2.949029909160572E-17,5337.666357930198
318.72582720328506,43.079175870956696,6.938893903907228E-18,5348.126743692396
318.63717366259954,42.94326351884193,6.938893903907228E-18,5548.7625138582125
318.75452500014364,43.03679756275916,0,5484.7312138697735
318.77182255334117,43.01125410226002,-6.938893903907228E-18,5487.206813504516
318.5835189669002,42.941149989275466,-2.7755575615628914E-17,5489.68936396117
318.74752361931826,43.09011868450054,5.204170427930421E-18,5352.066909925516
318.9592556493787,43.21416304929808,-2.0816681711721685E-17,5361.870752646405
318.96793351983683,43.20138694257,6.938893903907228E-18,5303.121011868585
318.73668260245086,43.08968946508837,-2.7755575615628914E-17,5338.54524028653
318.71917693987217,43.08899637787214,0,5332.932399839916
318.9415313656697,43.24025785463519,-3.469446951953614E-18,5278.66459058165
318.77535314925194,43.12721147684876,-6.938893903907228E-18,5319.412277086225
318.85775736720484,43.09448307808539,2.7755575615628914E-17,5405.890383230884
319.0109010146653,43.243018261862595,6.938893903907228E-18,5287.1021559765895
319.1638857914672,43.39151933139825,0,5168.028112082584
319.20414171721535,43.09438344108071,0,6310.758768504848
319.05103263123425,42.9458706004713,0,6361.619377868994
319.0196991336501,43.17796053445924,-6.938893903907228E-18,5448.71206083454
319.24412098013,42.79721033061461,0,7495.566718559208
319.05977017248154,42.8808047233922,6.938893903907228E-18,6622.1531593397685
319.0080302981275,42.904235979414715,-6.938893903907228E-18,6375.272086724794
318.8752859170651,42.964412236212475,0,5835.643736690117
318.9968103038659,42.987494098941795,-6.938893903907228E-18,6046.034355295267
318.64337832191535,43.80263476794388,-1.1275702593849246E-17,4280.185595101482
318.6401000014,43.78171606377167,-7.806255641895632E-18,4325.7781871352745
318.61748302632253,43.79856468765335,-3.469446951953614E-18,4290.5867477622005
318.9036386806523,43.597080180812924,-1.6479873021779667E-17,4652.2436486559
318.9019928964336,43.586617697584956,6.5052130349130266E-18,4744.559440812606
318.89068440889486,43.5950420095258,2.168404344971009E-18,4726.634891048152
318.650908194211,43.79670388961494,-2.2551405187698492E-17,4290.998372491232
318.9074058962739,43.59411283084728,-1.9949319973733282E-17,4657.786886236934
318.3782071063664,43.97681442995838,3.469446951953614E-18,3975.7109067024485
318.3943927188787,43.999292512306546,-2.7755575615628914E-17,3953.30112682802
316.61152142572763,42.375461761979125,1.3877787807814457E-17,3637.3780261803786
316.4659816254932,42.36272867936679,0,3566.9630838441026
316.6378709698233,42.54850296496693,0,3609.7843397564966
316.2695935756016,42.345546951349306,1.3877787807814457E-17,3472.51399495284
316.1993289094993,42.33939958961892,1.3877787807814457E-17,3438.4968244879287
316.2823147825488,42.429088926330024,6.938893903907228E-18,3459.201245056216
316.65688393567893,42.67336381538913,0,3590.1311621265345
316.49524796086445,42.6592224999749,0,3512.053177576784
316.6861476438808,42.86554274845729,0,3564.626991948502
316.4820351809376,42.52536537192377,0,3536.992252086966
316.3149560855529,42.643449004759304,-1.3877787807814457E-17,3425.583386279402
316.7022464456303,42.97126586879913,-6.938893903907228E-18,3550.419585589969
316.22153575960715,42.56437459071241,-6.938893903907228E-18,3397.0369725243463
316.5099857497375,42.80852931529155,2.7755575615628914E-17,3488.4326526164195
315.94890331082655,42.33360841729952,8.673617379884035E-19,3314.0761164297355
315.9504251477111,42.317623332153495,-4.3368086899420177E-19,3316.7809207702176
315.93481849321796,42.31625792680978,4.3368086899420177E-19,3310.0226521967543
315.9352854554774,42.33818456008214,4.3368086899420177E-19,3312.6573975699675
316.1472641140035,42.609665975908285,6.938893903907228E-18,3350.7770000936425
316.2275643999499,42.721419409746666,0,3367.464533201269
316.2238668216105,42.62509826796879,-1.3877787807814457E-17,3385.0228560778614
316.3571333792892,42.901739793284975,6.938893903907228E-18,3394.9207307332063
316.52239279901556,43.13173035198464,3.469446951953614E-18,3433.350801218064
316.51478311688845,42.93349972540611,1.3877787807814457E-17,3465.9680090630645
316.56700264457487,43.19381361066167,-3.469446951953614E-18,3436.690445938062
315.91819636724813,42.33372617040075,4.3368086899420177E-19,3288.4674792071273
315.9313194587601,42.315951800961436,0,3282.4842132207887
318.58948136920884,44.19352531572986,-1.1275702593849246E-17,3831.188219954148
318.59538517770744,44.19938791249192,-2.0816681711721685E-17,3827.448543163592
318.59698878171145,44.187757328257874,-2.2551405187698492E-17,3827.041088395489
318.7934061502441,44.39654771791731,-1.5612511283791264E-17,3702.7740724905884
318.79635981443045,44.399480871054074,-1.951563910473908E-17,3701.0459460663233
318.79716579324986,44.39366242296229,-1.9949319973733282E-17,3696.943276762249
318.84917956892275,43.99389822052545,-1.474514954580286E-17,4138.804488937072
318.852136956782,43.9968318870831,-1.8214596497756474E-17,4137.144400748376
318.8529355918586,43.991012426417925,-1.8214596497756474E-17,4143.6521833378065
318.84836601817284,43.99979872370569,-1.3877787807814457E-17,4132.21022383113
319.0533478635855,44.19695743831571,3.2139060095971913E-19,4024.656737896609
319.10887092895615,43.79427342098939,1.6069530047985957E-18,4471.716387783348
318.99731659535524,44.599571383377196,0,3584.128925135079
318.7931711088104,44.399244763371875,5.4643789493269423E-17,3710.9691843804003
318.79301110726374,44.401080743680005,2.6020852139652106E-17,3706.3382190918496
318.5890199352315,44.19891726042912,-4.163336342344337E-17,3839.693423868291
318.5887056191722,44.20259010398282,-1.214306433183765E-17,3835.488344742482
318.7909526683398,44.39908089109354,4.336808689942018E-17,3707.625699912187
318.5845887413243,44.198590398809884,-2.0816681711721685E-17,3838.243374447088
318.3844001310806,44.00409946428562,-2.7755575615628914E-17,3956.144905800167
318.667004647443,44.661432172411175,0,3499.0163368728417
318.65847252174973,44.6785756188882,-1.3877787807814457E-17,3491.4774592154545
318.6784807599321,44.68691192784491,-2.0816681711721685E-17,3481.8763357221114
318.3366926995307,44.72329296144515,-2.7755575615628914E-17,3417.27379433711
318.31950345608874,44.75755254839023,1.3877787807814457E-17,3397.1972572500877
318.3593829702418,44.77418729012458,5.551115123125783E-17,3382.6210042129087
318.6327786493531,44.66784201395853,-6.938893903907228E-18,3490.3309448961804
318.26824070335084,44.736112644539865,0,3401.0161457727413
318.65055315442135,44.694487861019766,-2.7755575615628914E-17,3472.788195058022
318.3035660860325,44.78931704791337,0,3365.2819031921485
318.0400240137956,44.86139766617289,1.3877787807814457E-17,3287.7940232336196
318.00638075161834,44.78515375047911,-2.7755575615628914E-17,3336.386873079714
315.8090716043622,42.30525649956125,-4.3368086899420177E-19,3233.255040544081
315.54339300780913,42.28201263422137,-2.6020852139652106E-17,3138.7550491791967
315.5367353755768,42.29236917769172,1.3877787807814457E-17,3133.488430302112
315.5548097036911,42.293224479555235,6.938893903907228E-18,3140.244507409961
315.15707316033587,42.2482140270724,1.0408340855860843E-17,2996.1994267576874
315.1407347502694,42.27362988787475,0,2985.893032213832
315.18509072760526,42.275728873233085,-1.0408340855860843E-17,3002.421188775219
315.5356968150633,42.2813393046038,0,3135.8769469301783
315.13818603220324,42.246561617474235,3.469446951953614E-18,2989.159121838139
314.77075331286267,42.21441541992343,6.938893903907228E-18,2853.405959292128
314.81537175151954,42.25823326691094,2.0816681711721685E-17,2865.722462912969
314.7426272350454,42.23656326614131,2.42861286636753E-17,2845.0428694831694
315.6573427891283,42.739507284004084,-6.938893903907228E-18,3115.122226420017
315.4799286992892,42.56527654720512,-1.3877787807814457E-17,3066.208101452273
315.4372720251531,42.720253586982764,0,3026.4821030000994
315.7935278222053,42.527659262687216,-1.3877787807814457E-17,3205.050152760709
315.49741335483816,42.50175260368657,-6.938893903907228E-18,3082.9141401376887
315.40720797473216,42.49386065553825,0,3050.0502774103925
315.1316858202539,42.46975559047116,-1.3877787807814457E-17,2950.554158920777
315.3648009731991,42.55982854614832,-1.3877787807814457E-17,3023.8309674906986
315.5888671961287,42.846027204421866,-6.938893903907228E-18,3071.1915073413293
315.40504769488723,42.83732861485498,6.938893903907228E-18,2996.9397101719424
315.7608015985065,42.57856783596527,1.0408340855860843E-17,3183.316883050842
315.1102097232034,42.547780940882966,0,2930.614348498838
315.27102294165513,42.70570867685511,1.3877787807814457E-17,2966.3363505127663
315.0208881272589,42.46006204838927,1.3877787807814457E-17,2910.7375972547297
315.52115775605125,42.951355305320945,0,3024.568871495646
314.7300776780939,42.21085676299944,3.122502256758253E-17,2832.456041327004
314.64706103041595,42.25578889675842,-3.469446951953614E-18,2806.9438759690715
318.92054685063795,45.145259637481374,0,3265.604610129252
318.58004757082006,45.192560982911075,1.3877787807814457E-17,3179.0719248280616
318.2393912475304,45.23989020216474,-2.7755575615628914E-17,3099.679864460223
318.54749450610814,45.197086494455405,4.163336342344337E-17,3171.15798309759
318.84284376475193,45.690814956667715,0,2951.924955048128
318.5732787114815,45.24010491861643,1.3877787807814457E-17,3151.421747973036
318.50192112350464,45.73805669031397,6.938893903907228E-18,2879.3036382424866
318.60124677614414,45.23253469355029,2.0816681711721685E-17,3160.61877498276
318.28168474250515,45.319744565466934,2.7755575615628914E-17,3063.853286521202
318.5230794511875,45.77802452433782,2.7755575615628914E-17,2861.810792966022
318.76420733769726,46.23623734093622,0,2686.555718168313
318.4900516935941,45.8163044512246,-6.938893903907228E-18,2864.6007495453496
318.44706889548615,45.75046633697954,-1.3877787807814457E-17,2889.9206258081913
318.2158960494911,45.39637156151298,-6.938893903907228E-18,3026.4570798122777
318.12993045327505,45.264695333022864,6.938893903907228E-18,3079.0277768999395
317.9417404053879,44.97643867180135,1.3877787807814457E-17,3198.0570250849673
318.16111853850265,46.46119705091071,0,2578.622156745282
318.0144072035263,46.51592222473309,0,2550.618568635832
318.12919414293594,46.56569890192369,3.469446951953614E-18,2532.5541436491467
317.55802973930804,46.6861567608852,3.469446951953614E-18,2462.3973751898648
317.26460706935524,46.79560710852995,3.469446951953614E-18,2406.4920637213654
317.49398230460054,46.89513059883353,0,2382.7290512225795
318.11123025578604,46.57495070716858,3.469446951953614E-18,2528.4374721089107
317.45810462821254,46.91360489949698,6.938893903907228E-18,2374.5240685252525
316.85857271602964,47.22453256597028,-6.938893903907228E-18,2246.347285230856
316.95494094011326,46.91111647085967,3.469446951953614E-18,2333.693475441316
313.40136662151076,42.41908201057499,0,2438.2404310200163
312.932540693711,42.18946717625735,1.3877787807814457E-17,2336.526358749807
312.82982812592735,42.369078871442774,0,2294.6630393753326
314.0871323787097,42.32918771142644,0,2628.960408856299
313.93936374117396,42.141678257427,0,2606.493905766609
313.43497117974584,42.41467692300823,8.673617379884035E-19,2447.459561033552
313.4198662271594,42.41665697102343,8.673617379884035E-19,2443.2592899591127
313.148649804254,42.07249975185456,0,2401.835600998438
314.18221139605396,42.16292467419286,2.7755575615628914E-17,2670.7349726154744
313.59437545596137,42.11149569342166,-2.7755575615628914E-17,2517.3818041909026
312.75260007560905,42.504126230620415,1.3877787807814457E-17,2272.1421114078917
313.00653951586867,42.06006671265044,1.3877787807814457E-17,2366.4121991999273
312.89439055558637,42.83404542155034,0,2273.4337008266725
313.2038766650247,42.903814707003356,2.7755575615628914E-17,2342.198724116701
313.41328515032546,42.43150038502466,0,2441.429999027031
313.417207715172,42.42265316208013,0,2443.2666504299973
313.4230048982788,42.42396005538055,-8.673617379884035E-19,2444.5954259482805
313.9885834409308,42.551461773826034,4.163336342344337E-17,2579.811079691295
313.43675548788025,42.45595503414676,0,2444.950460207327
313.0619504024415,43.223924975633054,0,2275.2994820322865
313.8431770629099,42.87942133452717,-1.3877787807814457E-17,2511.8387034238094
313.467653267711,43.170743004452504,1.3877787807814457E-17,2380.4482927332765
313.6748660932508,43.00999264152487,2.7755575615628914E-17,2450.8472009540683
314.2034804359431,42.599907275355065,-1.3877787807814457E-17,2640.1454282692466
313.14625175055846,43.42007800769467,0,2272.7052492872294
312.7517311950103,42.309733128661996,5.551115123125783E-17,2283.978174569129
312.6819594031315,42.356142034508075,-1.3877787807814457E-17,2269.5109114685984
312.6074805430236,42.20011727067322,2.7755575615628914E-17,2267.3018628741465
312.52032109466154,42.01752811279733,0,2257.1496220824647
312.4824897722813,42.65529602637078,0,2206.8890014116223
312.3653786720171,42.24990255518942,-1.3877787807814457E-17,2206.350406713947
312.2721541780513,42.773012338658916,-1.3877787807814457E-17,2150.586529272906
312.16552394457625,42.54963409453047,-5.551115123125783E-17,2138.8417334977466
311.864429793533,43.00119916148921,-6.938893903907228E-18,2050.399791691375
311.8117954900586,43.089162152368,6.938893903907228E-18,2036.0845562725876
311.79148547434676,43.08403831395549,6.938893903907228E-18,2039.329889479013
311.7731420747757,43.15376013869124,0,2024.971308064967
311.7998527245553,43.05223505140865,0,2039.1971443368116
311.7673239967526,43.077942823496194,0,2031.999740803174
311.3732143534611,43.38941153351446,2.7755575615628914E-17,1942.343227465674
311.46405884215164,43.67030322518605,-2.7755575615628914E-17,1937.3744942201656
318.5463087392769,47.714344165122455,0,2227.28193996524
318.02024485510424,47.30475209915289,0,2303.9143126486065
318.0172127247174,47.32499480484613,0,2298.0111732635587
318.65611489456205,46.975418083822426,0,2449.164603043504
318.1262089678788,46.58594858528743,0,2520.320650870992
318.0053455031345,47.29321588466859,0,2306.013660758502
317.4879740330274,46.93556219606063,0,2370.101671869923
318.00225686644654,47.314000317101005,0,2299.9379991243177
317.90958185512255,48.04355063479594,0,2084.650875626008
317.38417617203817,47.63405625105091,6.938893903907228E-18,2164.8562202681915
317.89470660526564,48.032017996184265,0,2086.818765922264
317.3544662494293,47.611025739955764,6.938893903907228E-18,2169.256976110582
318.4347888718418,48.45301558483632,0,2000.550901235108
317.8934503526945,48.06101785310068,0,2082.0090597448175
317.89416941951754,48.044418615446894,0,2086.6065899099317
317.8722704833854,48.045680942029385,3.469446951953614E-18,2085.0574553936276
317.35211183354727,47.66902012136506,6.938893903907228E-18,2161.9221707958814
317.35346036713645,47.63580280750321,6.938893903907228E-18,2168.682142475056
317.309752094929,47.638346299222455,6.938893903907228E-18,2168.0996634902895
316.8107733144,47.27702238962943,0,2231.197198093146
311.97496278793733,42.342063051222524,0,2114.8596121332803
311.3849410929142,42.48134194406731,-6.938893903907228E-18,2004.1969716762385
311.60337416434817,41.93730565134003,-2.7755575615628914E-17,2082.5588093311935
311.3011767176857,42.390525382656804,-1.3877787807814457E-17,1996.6540352748214
312.1207087174015,41.982566559982445,-1.3877787807814457E-17,2173.463173505762
310.8199310324793,41.86876325878426,0,1954.360378696
310.88313958802206,43.24732271604372,-2.7755575615628914E-17,1870.934037377209
311.0276552223266,43.01323019096981,0,1909.6706422666966
310.8112879744198,42.777689253205914,-2.7755575615628914E-17,1890.9036602963174
310.32101862335793,42.6343285934573,0,1829.1017465109085
310.4651428862887,42.40087002825611,0,1860.9013583947024
310.2493615953786,42.165966972897365,0,1843.2964162847625
310.6949465522506,43.0420978052302,2.7755575615628914E-17,1856.8903032490184
310.13333524432574,42.42965946441552,0,1816.1952982835123
311.2565578601756,43.65453614604489,0,1896.755003170246
309.7588976586938,42.02133447087087,-2.7755575615628914E-17,1790.9568539148017
309.9026305502507,41.788509865542395,0,1815.3266464814333
311.26586189035766,42.470923863781906,-6.938893903907228E-18,1984.6482998938557
311.2480452158913,42.5114856808478,-6.938893903907228E-18,1979.0763994302529
311.2060659007407,42.465692392566105,-6.938893903907228E-18,1975.2271195245376
310.6859065903042,41.89827472103519,0,1928.0841775685694
311.23792634551404,42.44051277110012,-6.938893903907228E-18,1982.1434103398688
310.70334955431963,41.8585637010682,-6.938893903907228E-18,1933.613396186719
310.64480780472866,41.85344196163601,-6.938893903907228E-18,1924.501284492867
309.6140555582707,41.76326282516705,0,1783.109531628903
309.2554386240678,42.09330270230164,5.551115123125783E-17,1732.6485735740393
308.9991087412909,42.329206461854,0,1699.4158548203043
309.3970093920284,42.40821299042902,-2.7755575615628914E-17,1736.20976166925
308.6869763899644,42.61646596651323,-5.551115123125783E-17,1666.7189844831416
308.3841619243111,42.89515009854094,2.7755575615628914E-17,1640.1552327450977
308.8542205520094,42.98848420174572,0,1666.1021973749084
309.176036023628,42.64444571058945,0,1704.8579005839965
308.59317438856226,43.26755695030803,0,1641.0955513348881
308.3114317119903,43.56875541306242,-5.551115123125783E-17,1617.94077392348
308.1185141558609,43.13962923072479,0,1622.1107047025607
317.2727757865267,49.279966029962914,0,1784.5814557282629
317.1867652346731,49.82784381841769,0,1677.0956487041549
317.57391379727113,49.695549592225944,0,1718.8364958116754
318.28087330946687,49.453971369676836,-1.1430183429374843E-17,1793.1213521993643
317.85378232918424,48.86649080739961,1.3877787807814457E-17,1889.9885294908906
317.7334635316547,49.640851746781955,1.3877787807814457E-17,1734.8473391143011
318.1238122128841,50.45443334083781,-5.715091714687423E-17,1596.4870737495946
317.6982939997054,49.867199685400365,1.3877787807814457E-17,1690.9031293376052
317.5755411487986,50.641178505633775,1.3877787807814457E-17,1537.647148431908
317.52800438521194,49.987987515320334,0,1661.6143031057852
316.9331160062716,49.521686032967295,2.7755575615628914E-17,1723.7181046015462
316.8678737338072,49.937272157939475,2.7755575615628914E-17,1646.1074878467443
317.68395243905667,48.98735080890181,0,1859.8076728806216
317.4157396579503,50.69583682812934,0,1527.524977736619
317.11571468994384,50.28042800112388,0,1592.1886897833108
317.53966013601865,50.86741474972155,1.3877787807814457E-17,1500.9732414173127
316.6917692438691,49.69344125252621,-2.7755575615628914E-17,1689.9720594014675
317.9636055820934,51.45440149831922,0,1407.9039452838338
316.28937447394753,52.425697897750155,0,1238.38850290966
316.406893009206,52.486860235323896,0,1230.2388647813596
316.40620170576545,52.44943750555253,0,1238.0583825499698
317.12649002802044,51.9400496980347,3.469446951953614E-18,1322.487174571568
317.18549049197514,51.97072895627795,-6.938893903907228E-18,1316.9179901649504
317.1850735180429,51.951953443908394,-6.938893903907228E-18,1324.041254302895
316.40452906667855,52.35889156453048,0,1249.396491217479
317.184067324386,51.90664653142486,-3.469446951953614E-18,1328.1870869441068
316.45050360701185,52.45843818434134,-1.3877787807814457E-17,1234.7289070604515
317.2073466117741,51.95647838251099,0,1319.2440738985385
315.62499080897106,52.81113659763609,0,1181.0377771750962
315.69308111558007,52.96028181551005,1.3877787807814457E-17,1155.7766365189505
307.1450578779176,42.78674254155241,-3.469446951953614E-18,1613.4629493690293
307.12113616210786,42.76250090608076,-1.734723475976807E-17,1613.705460464328
307.1355262534055,42.79560950402683,-9.020562075079397E-17,1615.7290560048264
305.9078728352961,41.533011870526956,2.7755575615628914E-17,1635.513626445713
306.163019893976,42.39931726279329,0,1626.6731536272166
306.4757041799153,42.10843716924403,0,1622.0565720173527
305.8144683989462,41.59737298920969,5.551115123125783E-17,1650.8587566659726
307.14674072300426,42.82141165895734,2.7755575615628914E-17,1615.1805090536936
306.5309097971316,43.24575517900283,-6.938893903907228E-18,1609.593267908363
306.99652004547477,42.924922490272195,0,1613.862254024723
305.8667720915719,42.67490702650083,5.551115123125783E-17,1633.4412129837442
306.4708947917895,43.28710902719797,-6.938893903907228E-18,1610.3417884261485
307.1661034728503,42.80806959203241,-5.898059818321144E-17,1612.2173046489752
305.80635048191306,41.43013179693565,5.551115123125783E-17,1645.7428946048417
305.9150788712589,43.67009869904831,-1.3877787807814457E-17,1627.0513222976451
307.55079407010464,42.202495346906936,0,1626.8376546902682
306.02891895553284,41.44960401523565,1.3877787807814457E-17,1628.467034863618
307.63200097610655,42.09665226114515,-2.7755575615628914E-17,1628.91121711376
307.75398996626114,42.220272684295615,-6.938893903907228E-17,1629.968319214789
307.19119634678185,42.790779134530474,-2.0816681711721685E-17,1612.3571145058686
307.9892734747187,42.24085732400025,-4.163336342344337E-17,1643.0705555044765
307.8613121539113,42.32903015686688,-4.163336342344337E-17,1632.0935473834052
308.55652083497216,41.84999072170133,-5.551115123125783E-17,1682.8480802868735
307.9963764359128,41.62173424073817,-5.551115123125783E-17,1660.776275829711
308.36292205460467,41.6538028270388,5.551115123125783E-17,1676.8088087650017
307.0846362682589,41.54196731198723,5.551115123125783E-17,1625.6889750135742
308.7873506026554,41.69093551347001,-2.7755575615628914E-17,1710.9289955597508
307.75907964512953,43.79822716447873,-2.7755575615628914E-17,1596.9761676541498
303.6670718635311,44.33712372016572,1.214306433183765E-16,1834.6194673038085
303.6801961492597,44.35827545058984,7.28583859910259E-17,1839.5464484785296
303.69939445036385,44.31834342695211,2.42861286636753E-17,1837.5452671551247
304.9002778086385,43.99977569320018,1.3877787807814457E-17,1708.6910128467762
304.6172213995136,43.45910253998555,1.1102230246251565E-16,1725.962123708627
304.4233345727028,44.1547195715583,2.7755575615628914E-17,1754.2612733871936
305.1564051096779,43.648676838478096,6.938893903907228E-17,1679.901506798683
305.1692067219808,43.91240913530331,4.163336342344337E-17,1681.9284275407226
305.5524221897954,43.78791446517023,2.7755575615628914E-17,1653.3532408003657
305.2350124485822,43.67631478607968,-1.249000902703301E-16,1675.0762523473993